HEADER
"PSFversion" "1.00"
"vdda!v" "vdda!v"
"gnd!v" "0v"
"inputv" "_net0v"
