HEADER
"PSFversion" "1.00"
"outputv" "_net0v"
"inputv" "_net1v"
