HEADER
"PSFversion" "1.00"
"design" "(\"lab1_bb\" \"inverter_tb\" \"schematic\" \"\")"
"simulator" "spectre"
"temperature" "27"
"host" ""
"date" "Jan 17 14:41:18 2020"
"title" ""
"analysisList" "()"
END
